21
Properties=species:S:1:pos:R:3 energy=-1922.02 pbc="F F F"
C        2.83381000      -0.68845000       1.36354000
C        2.55654000      -0.17294000      -0.04939000
N        1.10338000      -0.16870000      -0.28844000
C        3.13868000       1.24864000      -0.27966000
N        4.59577000       1.37905000      -0.05815000
C        5.36267000       0.61618000      -1.04604000
C        4.98210000       2.79191000      -0.11999000
H        3.90956000      -0.77513000       1.54920000
H        2.39883000      -1.68390000       1.51001000
H        2.41198000      -0.02127000       2.12393000
H        2.99526000      -0.86913000      -0.77221000
H        0.64979000       0.42512000       0.40617000
H        0.73625000      -1.10711000      -0.13112000
H        2.62371000       1.93028000       0.41171000
H        2.88278000       1.58396000      -1.29455000
H        5.18771000      -0.45837000      -0.93813000
H        6.43791000       0.76221000      -0.89270000
H        5.12100000       0.90871000      -2.07378000
H        4.45657000       3.36936000       0.64854000
H        4.76530000       3.23781000      -1.09709000
H        6.05241000       2.90708000       0.08268000
19
Properties=species:S:1:pos:R:3 energy=-1780.07 pbc="F F F"
C        1.51993000      -1.05143000       0.03646000
C        3.00116000      -0.70752000       0.03080000
C        3.22513000       0.80386000       0.12350000
C        4.70185000       1.18276000       0.05064000
C        5.44461000       0.70778000       1.26986000
N        6.39530000      -0.16525000       1.16002000
N        6.94519000      -0.49360000       2.34993000
H        1.38305000      -2.13616000      -0.01215000
H        1.01094000      -0.60584000      -0.82392000
H        1.03629000      -0.68838000       0.94877000
H        3.45790000      -1.09747000      -0.88634000
H        3.48383000      -1.21386000       0.87458000
H        2.78871000       1.18123000       1.05632000
H        2.69750000       1.29806000      -0.70140000
H        4.79481000       2.27394000       0.02072000
H        5.16569000       0.77689000      -0.85465000
H        5.13588000       1.13293000       2.24270000
H        7.83854000      -0.96556000       2.18251000
H        6.37479000      -1.20294000       2.81873000
15
Properties=species:S:1:pos:R:3 energy=-1544.93 pbc="F F F"
N        0.92125000      -0.02372000       0.06644000
C        2.21390000       0.01755000       0.06756000
N        2.88283000       1.19619000       0.26918000
C        4.25951000       1.31638000      -0.18793000
C        5.06644000       0.04583000       0.11576000
C        4.29070000      -1.22269000      -0.11118000
C        2.95065000      -1.25075000      -0.15203000
H        0.55301000       0.90890000       0.25401000
H        2.33271000       2.03965000       0.17504000
H        4.73097000       2.18154000       0.28993000
H        4.25480000       1.50374000      -1.26879000
H        5.40248000       0.05960000       1.15907000
H        5.96495000       0.04220000      -0.51081000
H        4.84882000      -2.14696000      -0.22265000
H        2.37343000      -2.15459000      -0.29918000
21
Properties=species:S:1:pos:R:3 energy=-1994.55 pbc="F F F"
C        0.97805000      -0.03212000       0.00201000
C        2.49861000      -0.01180000       0.02509000
C        3.03956000       1.41946000      -0.04282000
C        4.57266000       1.46113000      -0.01597000
O        5.08952000       0.77204000      -1.15201000
C        5.08574000       2.90575000      -0.01280000
C        6.60587000       2.98160000       0.04326000
H        0.61207000      -1.06195000       0.05887000
H        0.59449000       0.41400000      -0.92111000
H        0.56475000       0.52294000       0.85002000
H        2.87401000      -0.60034000      -0.81967000
H        2.85104000      -0.49770000       0.94212000
H        2.64088000       1.99913000       0.79858000
H        2.67567000       1.88728000      -0.96654000
H        4.93861000       0.94147000       0.87683000
H        4.76908000       1.22844000      -1.94866000
H        4.66949000       3.44561000       0.84582000
H        4.75135000       3.42262000      -0.92084000
H        6.99081000       2.47430000       0.93333000
H        6.92941000       4.02653000       0.08124000
H        7.06027000       2.52201000      -0.83972000
16
Properties=species:S:1:pos:R:3 energy=-1646.91 pbc="F F F"
C        0.93404000       0.00080000      -0.16044000
C        2.41214000       0.02349000      -0.01408000
C        3.22845000       1.09495000       0.01142000
C        4.64767000       0.75596000       0.16388000
N        5.31746000      -0.00927000      -0.87463000
C        4.67301000      -0.76190000       0.19651000
C        3.23692000      -1.24351000       0.09575000
H        0.58967000      -0.98844000      -0.48435000
H        0.60305000       0.73010000      -0.90181000
H        0.45621000       0.23035000       0.80180000
H        2.89017000       2.12265000      -0.05614000
H        5.24568000       1.29760000       0.88450000
H        4.75377000      -0.01889000      -1.72634000
H        5.29672000      -1.27715000       0.90956000
H        2.95810000      -1.80533000       0.99403000
H        3.10574000      -1.87809000      -0.78704000
20
Properties=species:S:1:pos:R:3 energy=-1913.01 pbc="F F F"
C        1.00753000      -0.05040000      -0.00391000
C        2.52763000      -0.04457000       0.04455000
N        3.01991000       1.33061000      -0.02289000
C        4.48514000       1.36883000       0.03535000
C        4.98692000       2.81881000      -0.01565000
C        6.48881000       2.88757000       0.03480000
C        7.18213000       3.49704000       1.00479000
H        0.63301000      -1.07815000       0.04216000
H        0.63887000       0.40152000      -0.93117000
H        0.58046000       0.50148000       0.84050000
H        2.91246000      -0.62720000      -0.79986000
H        2.85806000      -0.52669000       0.97162000
H        2.63516000       1.86870000       0.75364000
H        4.90245000       0.80980000      -0.81141000
H        4.83725000       0.89263000       0.95903000
H        4.55002000       3.39124000       0.81254000
H        4.65070000       3.29651000      -0.94428000
H        7.02858000       2.41784000      -0.78538000
H        6.68904000       3.98781000       1.83828000
H        8.26748000       3.52003000       0.98114000
15
Properties=species:S:1:pos:R:3 energy=-1463.01 pbc="F F F"
C        0.97843000      -0.01024000       0.37209000
C        2.42535000      -0.04479000      -0.09576000
C        2.81403000       1.23254000      -0.83348000
O        4.13509000       1.12951000      -1.39691000
C        4.50650000      -0.11275000      -1.80197000
N        3.84849000      -1.21883000      -1.65100000
N        2.63833000      -1.13747000      -1.04295000
H        0.81541000       0.82638000       1.06083000
H        0.71437000      -0.93395000       0.89930000
H        0.28459000       0.10779000      -0.46827000
H        3.08734000      -0.19163000       0.76637000
H        2.82103000       2.08111000      -0.14143000
H        2.11949000       1.47307000      -1.64754000
H        5.49641000      -0.08142000      -2.28041000
H        2.37108000      -2.04028000      -0.64620000
19
Properties=species:S:1:pos:R:3 energy=-1847.16 pbc="F F F"
C        1.18524000       0.17386000       0.30151000
C        2.64973000       0.28114000      -0.12979000
C        2.82685000      -0.28977000      -1.54614000
C        4.28321000      -0.33956000      -1.99781000
O        4.36513000      -0.93644000      -3.28842000
C        3.09275000       1.72183000      -0.04796000
C        4.08343000       2.15845000       0.74113000
H        1.04200000       0.56983000       1.31378000
H        0.85835000      -0.87206000       0.30565000
H        0.52409000       0.72942000      -0.37395000
H        3.24406000      -0.32802000       0.56375000
H        2.24419000       0.29014000      -2.27475000
H        2.41234000      -1.30601000      -1.58652000
H        4.89517000      -0.92829000      -1.30662000
H        4.71462000       0.66257000      -2.07223000
H        4.02331000      -1.84359000      -3.21363000
H        2.56767000       2.44072000      -0.67550000
H        4.64081000       1.48670000       1.38649000
H        4.35834000       3.20872000       0.75561000
14
Properties=species:S:1:pos:R:3 energy=-1394.67 pbc="F F F"
C        2.33109000      -0.71169000      -1.30820000
N        2.87052000      -0.39476000       0.00928000
C        3.53156000       0.92626000       0.03240000
C        4.92086000       0.87622000      -0.57988000
O        5.51254000      -0.13307000      -0.94590000
C        5.63705000       2.19792000      -0.69968000
O        5.12726000       3.23417000      -0.30917000
H        1.83826000      -1.68830000      -1.27054000
H        3.11199000      -0.76137000      -2.07309000
H        1.57856000       0.02251000      -1.61322000
H        3.56244000      -1.10762000       0.25646000
H        3.64355000       1.22963000       1.07850000
H        2.91950000       1.67487000      -0.48160000
H        6.63585000       2.13237000      -1.15910000
18
Properties=species:S:1:pos:R:3 energy=-1788.4 pbc="F F F"
C        2.49292000      -0.42743000      -1.65428000
N        2.37407000       0.09188000      -0.29832000
C        3.21296000       1.26378000      -0.08011000
C        3.29096000       1.60234000       1.41952000
C        3.41016000       3.12423000       1.49442000
C        2.77166000       3.55535000       0.21653000
C        2.65059000       2.53307000      -0.63888000
H        1.85807000      -1.31298000      -1.75835000
H        3.52152000      -0.72606000      -1.88126000
H        2.15798000       0.29996000      -2.39983000
H        2.64353000      -0.63821000       0.35911000
H        4.22626000       1.10072000      -0.46954000
H        4.13022000       1.09877000       1.91158000
H        2.37776000       1.28950000       1.94583000
H        4.45485000       3.44982000       1.52860000
H        2.88351000       3.51827000       2.36833000
H        2.46638000       4.57139000       0.00925000
H        2.23900000       2.62093000      -1.63408000
13
Properties=species:S:1:pos:R:3 energy=-1390.9 pbc="F F F"
C        3.34844000      -1.56415000      -1.12024000
C        2.74954000      -0.83163000      -0.17335000
C        3.25453000       0.46739000       0.35215000
O        2.61896000       1.01626000       1.25126000
C        4.52624000       1.05035000      -0.20802000
C        4.86582000       2.38689000       0.38027000
O        5.40054000       3.28100000      -0.27208000
H        2.90484000      -2.50442000      -1.43792000
H        4.27306000      -1.27480000      -1.60673000
H        1.82326000      -1.17064000       0.28264000
H        4.42246000       1.17088000      -1.29166000
H        5.35365000       0.37251000       0.02219000
H        4.73078000       2.49313000       1.47040000
12
Properties=species:S:1:pos:R:3 energy=-1289.92 pbc="F F F"
C        0.95292000      -0.08883000      -0.00585000
C        2.41097000       0.09551000      -0.00319000
C        3.26174000       1.17215000      -0.00347000
O        2.87431000       2.44900000      -0.00663000
N        4.56217000       0.77392000      -0.00019000
C        4.46333000      -0.53786000       0.00192000
O        3.19156000      -1.03094000       0.00026000
H        0.43167000       0.87317000       0.00299000
H        0.63621000      -0.65452000       0.87573000
H        0.63763000      -0.63764000      -0.89852000
H        3.69206000       2.97617000      -0.00600000
H        5.26151000      -1.26742000       0.00479000
16
Properties=species:S:1:pos:R:3 energy=-1597.51 pbc="F F F"
N        0.96345000       0.08724000      -0.22567000
C        2.37230000      -0.01300000       0.14696000
C        3.14157000       1.25049000      -0.25067000
C        3.53998000       1.18830000      -1.71937000
O        4.36175000       0.04771000      -2.00999000
C        3.89980000      -1.12112000      -1.46611000
C        2.96947000      -1.21624000      -0.50855000
H        0.54446000       0.88554000       0.24825000
H        0.46628000      -0.73346000       0.11669000
H        2.43260000      -0.12925000       1.23553000
H        2.56009000       2.15667000      -0.04538000
H        4.05245000       1.31034000       0.35969000
H        4.12000000       2.07939000      -1.98222000
H        2.66167000       1.16794000      -2.37650000
H        4.39859000      -1.97487000      -1.90644000
H        2.66468000      -2.19720000      -0.15854000
20
Properties=species:S:1:pos:R:3 energy=-1847.52 pbc="F F F"
C        2.60279000      -1.74783000       0.08232000
N        3.77169000      -0.91099000      -0.15731000
C        3.41766000       0.51140000      -0.09581000
C        4.66215000       1.36082000      -0.36020000
C        4.37127000       2.85162000      -0.22236000
O        3.40842000       3.24244000      -1.20078000
C        3.12558000       4.63436000      -1.13058000
H        2.89509000      -2.80141000       0.03905000
H        1.82829000      -1.58174000      -0.67316000
H        2.18113000      -1.56358000       1.07540000
H        4.14691000      -1.12052000      -1.08281000
H        3.01801000       0.75048000       0.89682000
H        2.64386000       0.73858000      -0.83876000
H        5.02801000       1.15720000      -1.37432000
H        5.45865000       1.08916000       0.34211000
H        5.29701000       3.41741000      -0.37937000
H        3.98920000       3.07428000       0.78086000
H        2.37843000       4.87186000      -1.89187000
H        4.02838000       5.21825000      -1.33218000
H        2.71953000       4.89375000      -0.14852000
20
Properties=species:S:1:pos:R:3 energy=-1909.21 pbc="F F F"
C        0.81958000       0.20188000      -1.15744000
C        2.25764000       0.60281000      -1.17481000
C        2.83713000       1.36701000      -0.23319000
C        4.28433000       1.77514000      -0.25074000
N        4.45745000       3.23445000      -0.23872000
C        5.87748000       3.55968000      -0.07700000
C        3.95268000       3.84893000      -1.47025000
H        0.30040000       0.64088000      -2.01410000
H        0.31027000       0.52421000      -0.24362000
H        0.73691000      -0.88721000      -1.22600000
H        2.84580000       0.24757000      -2.01759000
H        2.25213000       1.73078000       0.60870000
H        4.80885000       1.32486000      -1.10340000
H        4.73501000       1.35240000       0.65509000
H        6.25501000       3.17468000       0.87702000
H        6.02749000       4.64479000      -0.05612000
H        6.49175000       3.14378000      -0.88513000
H        2.87078000       3.71102000      -1.56923000
H        4.43889000       3.44357000      -2.36523000
H        4.11683000       4.93275000      -1.45278000
14
Properties=species:S:1:pos:R:3 energy=-1262.44 pbc="F F F"
C        1.33358000      -0.29547000      -0.06490000
O        2.71425000      -0.02537000       0.13870000
C        3.01409000       1.35845000      -0.08375000
C        4.52090000       1.57604000       0.09233000
N        5.28407000       0.85432000      -0.93176000
H        1.15780000      -1.35619000       0.13235000
H        1.05055000      -0.08103000      -1.09980000
H        0.72162000       0.29461000       0.62392000
H        2.47004000       1.96487000       0.64910000
H        2.69920000       1.65163000      -1.09241000
H        4.82958000       1.20856000       1.07713000
H        4.75680000       2.64249000       0.02974000
H        4.93728000      -0.10877000      -0.94470000
H        6.25963000       0.79913000      -0.64428000
13
Properties=species:S:1:pos:R:3 energy=-1375.03 pbc="F F F"
O        0.93022000      -0.02810000       0.00778000
C        2.15721000      -0.02169000       0.00373000
N        2.86161000       1.14101000       0.00293000
C        4.29897000       1.24801000      -0.03467000
C        4.95430000      -0.09015000      -0.00994000
C        4.25006000      -1.22467000       0.00635000
N        2.88793000      -1.17346000       0.00509000
H        2.29621000       1.97799000      -0.00226000
H        4.60911000       1.84437000       0.82876000
H        4.56834000       1.79067000      -0.94592000
H        6.03860000      -0.12366000      -0.01008000
H        4.70818000      -2.20682000       0.01931000
H        2.34331000      -2.02701000       0.01282000
18
Properties=species:S:1:pos:R:3 energy=-1781.04 pbc="F F F"
N        1.10747000      -0.15713000      -0.05869000
C        2.51437000       0.13425000      -0.00151000
C        3.35341000      -0.58580000      -1.08369000
C        4.44901000      -0.31955000       0.00911000
C        3.30603000      -0.73858000       1.00097000
C        4.52978000       1.21045000       0.12322000
C        3.02928000       1.54903000       0.11128000
H        0.58071000       0.20413000       0.73534000
H        0.88430000      -1.15012000      -0.11473000
H        3.48151000      -0.06665000      -2.03860000
H        3.12693000      -1.64033000      -1.28247000
H        5.36718000      -0.90436000      -0.01288000
H        3.07415000      -1.81001000       1.03343000
H        3.38882000      -0.36437000       2.02602000
H        5.01213000       1.52730000       1.05302000
H        5.05586000       1.65810000      -0.72552000
H        2.76112000       2.17395000      -0.74645000
H        2.71853000       2.04726000       1.03503000
14
Properties=species:S:1:pos:R:3 energy=-1480.15 pbc="F F F"
C        1.03678000      -0.08780000      -0.00601000
C        2.49815000       0.11227000       0.00079000
C        3.30811000       1.22807000       0.00574000
C        4.64180000       0.74967000       0.00732000
C        4.55604000      -0.61975000       0.00061000
N        5.47356000      -1.58770000      -0.00865000
O        3.26117000      -1.01775000      -0.00046000
H        0.50929000       0.87098000       0.00281000
H        0.72394000      -0.65715000       0.87429000
H        0.72995000      -0.63740000      -0.90077000
H        2.97782000       2.25743000       0.00576000
H        5.55096000       1.33315000       0.00921000
H        5.18636000      -2.55843000       0.03776000
H        6.46703000      -1.40538000       0.04829000
20
Properties=species:S:1:pos:R:3 energy=-1870.74 pbc="F F F"
C        0.83552000      -0.06343000      -0.03414000
C        2.35464000       0.02927000      -0.01669000
O        2.85366000      -0.69995000      -1.14561000
C        2.94002000       1.47624000      -0.04653000
C        2.43088000       2.28900000      -1.24716000
C        2.63998000       2.22879000       1.25621000
N        4.41210000       1.34819000      -0.20274000
H        0.38298000       0.46632000       0.80864000
H        0.52469000      -1.11331000       0.01785000
H        0.41865000       0.32824000      -0.96806000
H        2.72236000      -0.49168000       0.87624000
H        3.75400000      -0.33651000      -1.28495000
H        2.62013000       1.77472000      -2.19598000
H        2.91948000       3.26941000      -1.30029000
H        1.35415000       2.47390000      -1.17502000
H        2.99156000       1.66953000       2.13043000
H        1.56611000       2.40160000       1.37933000
H        3.12956000       3.20961000       1.27129000
H        4.80464000       0.91614000       0.63600000
H        4.82842000       2.27976000      -0.24993000
19
Properties=species:S:1:pos:R:3 energy=-1909.4 pbc="F F F"
C        0.88252000      -0.11514000      -0.15237000
C        2.39076000      -0.09490000      -0.02631000
C        2.96138000      -1.49695000      -0.09641000
C        3.12768000       1.03369000       0.15217000
C        2.51956000       2.42077000       0.20531000
C        4.59030000       0.99558000       0.24554000
C        5.38654000       1.97600000       0.69453000
H        0.39514000       0.82680000       0.10197000
H        0.45569000      -0.86211000       0.52671000
H        0.59804000      -0.38127000      -1.17571000
H        2.33448000      -2.19476000       0.47104000
H        3.96187000      -1.59203000       0.33008000
H        2.99067000      -1.83603000      -1.13714000
H        1.50113000       2.47203000      -0.18391000
H        3.09200000       3.12303000      -0.41259000
H        2.50572000       2.79159000       1.23587000
H        5.08987000       0.08929000      -0.08714000
H        5.01018000       2.92345000       1.06297000
H        6.46342000       1.83739000       0.71419000
14
Properties=species:S:1:pos:R:3 energy=-1423.21 pbc="F F F"
O        2.83590000       2.36408000      -2.23825000
C        2.25031000       2.09823000      -1.19177000
C        2.88801000       1.42347000       0.01084000
N        4.33673000       1.24899000      -0.15107000
C        5.06599000       2.49776000       0.06342000
C        6.50725000       2.24961000      -0.07849000
C        7.68407000       2.04735000      -0.19539000
H        1.17451000       2.31809000      -1.08128000
H        2.42167000       0.43764000       0.10749000
H        2.64881000       1.99580000       0.91302000
H        4.51815000       0.95018000      -1.11332000
H        4.86872000       2.88013000       1.07147000
H        4.75911000       3.26813000      -0.65211000
H        8.72845000       1.86033000      -0.29975000
17
Properties=species:S:1:pos:R:3 energy=-1630.44 pbc="F F F"
C        2.60779000      -1.71086000       1.54879000
C        2.88281000      -1.09188000       0.20811000
C        3.02080000      -1.83887000      -0.89987000
C        2.96125000       0.41621000       0.16932000
N        4.21452000       0.88378000       0.77143000
N        4.38037000       2.22894000       0.80806000
C        5.40517000       2.59062000       1.50510000
H        1.64907000      -1.35456000       1.94132000
H        3.39489000      -1.45424000       2.26515000
H        2.55571000      -2.80333000       1.49201000
H        2.95279000      -2.92227000      -0.86798000
H        3.21135000      -1.38741000      -1.86989000
H        2.10583000       0.83695000       0.71280000
H        2.89253000       0.78298000      -0.86363000
H        4.97912000       0.43517000       0.26023000
H        5.64501000       3.66093000       1.60394000
H        6.07038000       1.88160000       2.02962000
14
Properties=species:S:1:pos:R:3 energy=-1372.75 pbc="F F F"
N        0.85862000      -0.05268000      -0.34321000
C        2.25109000       0.00454000       0.12690000
C        3.31894000      -0.83769000      -0.52597000
O        3.03583000      -1.43671000      -1.80998000
C        2.86566000      -0.36574000      -2.75278000
O        3.04136000       0.90825000      -2.11020000
C        3.32239000       0.65041000      -0.71626000
H        0.35941000       0.80266000      -0.10423000
H        0.35931000      -0.82539000       0.09467000
H        2.34724000       0.14165000       1.20171000
H        4.08274000      -1.28233000       0.09805000
H        3.61506000      -0.46847000      -3.54304000
H        1.86271000      -0.41852000      -3.18516000
H        4.08830000       1.23455000      -0.22416000
15
Properties=species:S:1:pos:R:3 energy=-1458.12 pbc="F F F"
C        2.08917000      -0.31815000       1.49147000
C        2.48626000       0.04738000       0.06815000
C        3.07625000       1.43368000      -0.03607000
C        2.13177000       2.58956000       0.14039000
C        4.37854000       1.62630000      -0.30758000
H        1.71566000      -1.34682000       1.52487000
H        1.29625000       0.33564000       1.86806000
H        2.94450000      -0.24687000       2.17183000
H        1.61120000      -0.02463000      -0.58891000
H        3.20223000      -0.70038000      -0.29571000
H        1.30120000       2.51296000      -0.56879000
H        2.62491000       3.55214000      -0.03106000
H        1.72388000       2.60361000       1.15578000
H        5.05929000       0.79218000      -0.44685000
H        4.79985000       2.62293000      -0.39509000
16
Properties=species:S:1:pos:R:3 energy=-1556.54 pbc="F F F"
C        1.29872000      -0.55567000      -0.82744000
N        2.68888000      -0.38946000      -0.49721000
C        3.37128000       0.77246000      -0.80313000
O        2.88515000       1.69991000      -1.44109000
C        4.81621000       0.75595000      -0.27229000
C        5.51152000       2.09677000      -0.44350000
O        4.83456000       0.37528000       1.10353000
H        1.05636000      -1.62052000      -0.78982000
H        1.09582000      -0.16125000      -1.82723000
H        0.69704000      -0.01226000      -0.09371000
H        3.11033000      -0.98882000       0.20576000
H        5.36342000      -0.00889000      -0.83373000
H        4.99171000       2.88442000       0.11405000
H        5.55072000       2.39356000      -1.49708000
H        6.53427000       2.05128000      -0.05328000
H        4.42229000       1.10373000       1.60224000
19
Properties=species:S:1:pos:R:3 energy=-1761.46 pbc="F F F"
C        0.97852000      -0.08058000       0.00163000
N        2.42462000       0.07912000      -0.03307000
C        2.92097000       1.46712000      -0.02961000
C        2.50708000       2.22366000      -1.30338000
C        2.45597000       2.24215000       1.21394000
C        4.45802000       1.37347000       0.00425000
H        0.73995000      -1.14957000      -0.00613000
H        0.48980000       0.36552000      -0.86918000
H        0.54057000       0.33047000       0.91562000
H        2.79009000      -0.40833000      -0.85118000
H        2.80067000       1.67570000      -2.20632000
H        2.98692000       3.20851000      -1.34672000
H        1.42539000       2.39057000      -1.34730000
H        2.69673000       1.69850000       2.13507000
H        1.37632000       2.42744000       1.20267000
H        2.94796000       3.22043000       1.27247000
H        4.80710000       0.84207000       0.89833000
H        4.91577000       2.36999000       0.01496000
H        4.84906000       0.84332000      -0.87303000
15
Properties=species:S:1:pos:R:3 energy=-1536.19 pbc="F F F"
O        1.13841000       0.06283000       0.51029000
C        2.30136000       0.00518000       0.11072000
C        3.02668000      -1.31352000      -0.01505000
C        3.99569000      -1.27274000      -1.18825000
C        4.86003000      -0.01953000      -1.13878000
O        4.03510000       1.14241000      -1.20944000
C        3.15107000       1.24994000      -0.10127000
H        2.29766000      -2.11728000      -0.15768000
H        3.56381000      -1.49177000       0.92278000
H        4.62474000      -2.16889000      -1.18601000
H        3.41844000      -1.26990000      -2.12046000
H        5.47389000       0.01577000      -0.23126000
H        5.53513000       0.00049000      -2.00024000
H        3.72439000       1.44683000       0.81081000
H        2.48792000       2.09997000      -0.28698000
17
Properties=species:S:1:pos:R:3 energy=-1619.83 pbc="F F F"
N        0.81794000       0.19002000      -0.21843000
C        2.26015000      -0.02858000      -0.27669000
C        3.01788000       1.10123000       0.42607000
C        4.50320000       0.88207000       0.37153000
C        5.33399000       1.51771000      -0.71330000
C        5.43772000       2.01653000       0.70188000
H        0.34372000      -0.56143000      -0.71753000
H        0.58375000       1.05114000      -0.71095000
H        2.57657000      -0.10226000      -1.32325000
H        2.49388000      -0.98678000       0.20059000
H        2.71142000       1.15243000       1.47820000
H        2.75643000       2.06491000      -0.03015000
H        4.78764000      -0.10227000       0.72731000
H        4.84789000       2.16023000      -1.43857000
H        6.16768000       0.95153000      -1.11289000
H        6.33851000       1.78315000       1.25880000
H        5.01526000       2.98771000       0.93238000
13
Properties=species:S:1:pos:R:3 energy=-1367.41 pbc="F F F"
O        1.32226000      -0.59435000      -0.92004000
C        2.68724000      -0.19508000      -0.90016000
C        2.91150000       0.98351000       0.04065000
O        1.98731000       1.39537000       0.75074000
C        4.25332000       1.68165000      -0.00107000
C        5.38882000       0.74948000      -0.02546000
C        6.32322000      -0.00343000      -0.05441000
H        0.88851000      -0.12593000      -0.17689000
H        2.96925000       0.09222000      -1.91634000
H        3.28593000      -1.04741000      -0.56935000
H        4.32866000       2.32488000       0.88419000
H        4.26625000       2.32738000      -0.88470000
H        7.15728000      -0.66791000      -0.07908000
14
Properties=species:S:1:pos:R:3 energy=-1406.85 pbc="F F F"
N        0.89996000       0.26101000       0.81454000
C        2.15748000      -0.38749000       0.41140000
C        2.97511000       0.51300000      -0.51402000
O        2.49346000       1.32025000      -1.30210000
O        4.30792000       0.20340000      -0.37080000
C        5.19577000       0.90972000      -1.18218000
C        6.51518000       0.82490000      -1.00409000
H        0.27338000      -0.43153000       1.21875000
H        0.43843000       0.62591000      -0.02228000
H        1.94578000      -1.31698000      -0.12617000
H        2.73570000      -0.61304000       1.31222000
H        4.73851000       1.51144000      -1.95807000
H        6.93723000       0.21062000      -0.21595000
H        7.19790000       1.37438000      -1.64346000
15
Properties=species:S:1:pos:R:3 energy=-1497.87 pbc="F F F"
C        2.88515000       2.60119000      -3.13693000
C        2.05255000       2.57854000      -2.09033000
O        2.32959000       2.71788000      -0.76108000
C        3.69717000       2.88377000      -0.36443000
O        4.20552000       4.17469000      -0.70660000
C        5.48736000       4.46520000      -0.33557000
C        6.37481000       3.70352000       0.31344000